
#FDF: Opened INPUT_TMP.67378      for input. Unit: 12

fdf-debug              0     # Default value
SystemName     benzene                                                                                                                             
SystemLabel     benzene                                                                                                                             
XML.Write              T     # Default value
Write.XML              T     # Default value
XML.AbortOnErrors              F     # Default value
XML.AbortOnWarnings              F     # Default value
alloc_report_level              0     # Default value
xc.functional     LDA     # Default value
xc.authors     PZ     # Default value
MM.Cutoff          30.00000000     Bohr     # Default value
MM.UnitsEnergy     eV     # Default value
MM.UnitsDistance     Ang     # Default value
WriteIonPlotFiles              F     # Default value
Atom.Debug.KB.Generation              F     # Default value
user-basis              F     # Default value
user-basis-netcdf              F     # Default value
ReparametrizePseudos              F     # Default value
Restricted.Radial.Grid              T     # Default value
Rmax.Radial.Grid          0.000000000         # Default value
PAO.BasisSize     standard            # Default value
PAO.BasisType     split          # Default value
PAO.SoftDefault              F     # Default value
PAO.SoftInnerRadius         0.9000000000         # Default value
PAO.SoftPotential          40.00000000         # Default value
PAO.SplitNorm         0.1500000000         # Default value
PAO.SplitNormH         -1.000000000         # Default value
Number_of_species                        2

%block ChemicalSpeciesLabel                                                    
1    1 H                                                                       
2    6 C                                                                       
%endblock ChemicalSpeciesLabel                                                 
 

%block PS.Lmax                                                                 
  C 2                                                                          
%endblock PS.Lmax                                                              
 
FilterCutoff          0.000000000     Ry     # Default value
FilterTol          0.000000000     Ry     # Default value
KB.Rmax          6.000000000     Bohr     # Default value
PAO.EnergyShift         0.1000000000E-01         Ry
# Above item originally: PAO.EnergyShift         0.1000000000E-01 Ry        
PAO.SplitTailNorm              F     # Default value
PAO.FixSplitTable              F     # Default value
PAO.NewSplitCode              F     # Default value
PAO.Filter              F     # Default value
PAO.Keep.Findp.Bug              F     # Default value
PAO.Filter              F     # Default value
PAO.OldStylePolorbs              T     # Default value
PAO.SplitTailNorm              F     # Default value
PAO.FixSplitTable              F     # Default value
PAO.NewSplitCode              F     # Default value
PAO.Filter              F     # Default value
Vna.Filter              F     # Default value
FilterCutoff          0.000000000     Ry     # Default value
FilterTol          0.000000000     Ry     # Default value
KB.Rmax          6.000000000     Bohr     # Default value
PAO.EnergyShift         0.1000000000E-01         Ry
# Above item originally: PAO.EnergyShift         0.1000000000E-01 Ry        
PAO.SplitTailNorm              F     # Default value
PAO.FixSplitTable              F     # Default value
PAO.NewSplitCode              F     # Default value
PAO.Filter              F     # Default value
PAO.Filter              F     # Default value
PAO.Filter              F     # Default value
PAO.Filter              F     # Default value
PAO.OldStylePolorbs              T     # Default value
PAO.SplitTailNorm              F     # Default value
PAO.FixSplitTable              F     # Default value
PAO.NewSplitCode              F     # Default value
PAO.Filter              F     # Default value
Vna.Filter              F     # Default value
PAO.BasisType     split          # Default value
Atom-Setup-Only              F     # Default value
UseStructFile              F     # Default value
MD.UseStructFile              F     # Default value
LatticeConstant          0.000000000     Bohr     # Default value
AtomicCoordinatesFormat     NotScaledCartesianAng                                                                                                               
NumberOfAtoms                       12
ZM.UnitsLength     Ang                                                                                                                                 
ZM.UnitsAngle     deg                                                                                                                                 
ZM.ForceTolLength         0.1555739508E-02    Ry/Bohr
# Above item originally: ZM.ForceTolLength         0.4000000000E-01 eV/Ang    
ZM.ForceTolAngle         0.4211129172E-03     Ry/rad
# Above item originally: ZM.ForceTolAngle         0.1000000000E-03 eV/deg    
ZM.MaxDisplLength         0.1889726878           Bohr
# Above item originally: ZM.MaxDisplLength         0.1000000000     Ang       
ZM.MaxDisplAngle         0.3490658505            rad
# Above item originally: ZM.MaxDisplAngle          20.00000000     deg       
ZM.CalcAllForces              F     # Default value

%block Zmatrix                                                                 
molecule                                                                       
      2 0 0 0 xm1 ym1 zm1 0 0 0                                                
      2 1 0 0 CC 90.0 60.0 0 0 0                                               
      2 2 1 0 CC CCC 90.0 0 0 0                                                
      2 3 2 1 CC CCC 0.0 0 0 0                                                 
      2 4 3 2 CC CCC 0.0 0 0 0                                                 
      2 5 4 3 CC CCC 0.0 0 0 0                                                 
      1 1 2 3 CH CCH 180.0 0 0 0                                               
      1 2 1 7 CH CCH 0.0 0 0 0                                                 
      1 3 2 8 CH CCH 0.0 0 0 0                                                 
      1 4 3 9 CH CCH 0.0 0 0 0                                                 
      1 5 4 10 CH CCH 0.0 0 0 0                                                
      1 6 5 11 CH CCH 0.0 0 0 0                                                
constants                                                                      
        ym1 3.68                                                               
variables                                                                      
        zm1 6.9032294                                                          
        CC 1.417                                                               
        CH 1.112                                                               
        CCH 120.0                                                              
        CCC 120.0                                                              
constraints                                                                    
        xm1 CC -1.0 3.903229                                                   
%endblock Zmatrix                                                              
 
UseSaveData              F     # Default value
MD.UseSaveXV              F     # Default value
MD.UseSaveZM              F     # Default value
WriteCoorInitial              T     # Default value
MD.TypeOfRun     CG                                                                                                                                  
NetCharge          0.000000000         # Default value
MaxBondDistance          6.000000000     Bohr     # Default value
Output-Structure-Only              F     # Default value
SpinPolarized              F     # Default value
NonCollinearSpin              F     # Default value
LongOutput              F     # Default value
WriteDenchar              F     # Default value
WriteMullikenPop              0     # Default value
WriteHirshfeldPop              F     # Default value
WriteVoronoiPop              F     # Default value
PartialChargesAtEveryGeometry              F     # Default value
PartialChargesAtEveryScfStep              F     # Default value
MeshCutoff          420.0000000             Ry
# Above item originally: MeshCutoff          420.0000000     Ry        
NetCharge          0.000000000         # Default value
MaxSCFIterations             50     # Default value
SCFMustConverge              F     # Default value
DM.NumberPulay                        5
DM.NumberBroyden              0     # Default value
DM.FIRE.Mixing              F     # Default value
DM.MixSCF1              F     # Default value
DM.PulayOnFile              F     # Default value
DM.Pulay.Avoid.First.After.Kick              F     # Default value
DM.MixingWeight         0.3000000000    
DM.OccupancyTolerance         0.1000000000E-11     # Default value
DM.NumberKick              0     # Default value
DM.KickMixingWeight         0.5000000000         # Default value
DM.Tolerance         0.1000000000E-03     # Default value
DM.RequireEnergyConvergence              F     # Default value
DM.EnergyTolerance         0.7349806700E-05 Ry     # Default value
DM.RequireHarrisConvergence              F     # Default value
DM.HarrisTolerance         0.7349806700E-05 Ry     # Default value
UseSaveData              F     # Default value
DM.UseSaveDM              F     # Default value
NeglNonOverlapInt              F     # Default value
SolutionMethod     diagon     # Default value
Diag.DivideAndConquer              T     # Default value
Diag.Memory          1.000000000         # Default value
ElectronicTemperature         0.1900000000E-02 Ry     # Default value
FixSpin              F     # Default value
ON.MaxNumIter           1000     # Default value
ON.etol         0.1000000000E-07     # Default value
ON.eta          0.000000000     Ry     # Default value
ON.eta_alpha          0.000000000     Ry     # Default value
ON.eta_beta          0.000000000     Ry     # Default value
On.RcLWF          9.500000000     Bohr     # Default value
ON.UseSaveLWF              F     # Default value
ON.functional     kim     # Default value
ON.ChemicalPotentialUse              F     # Default value
ON.ChemicalPotential              F     # Default value
ON.ChemicalPotentialRc          9.500000000     Bohr     # Default value
ON.ChemicalPotentialTemperature         0.5000000000E-01 Ry     # Default value
ON.ChemicalPotentialOrder            100     # Default value
MD.VariableCell              F     # Default value
MD.TypeOfRun     CG                                                                                                                                  
MD.UseSaveCG              F     # Default value
Optim.Broyden              F     # Default value
MD.NumCGsteps                       20
MD.MaxCGDispl         0.2000000000     Bohr     # Default value
MD.MaxForceTol         0.1555740000E-02 Ry/Bohr     # Default value
MD.MaxStressTol         0.6797730000E-04 Ry/Bohr**3     # Default value
MD.InitialTimeStep              1     # Default value
MD.FinalTimeStep              1     # Default value
MD.LengthTimeStep          1.000000000     fs     # Default value
MD.Quench              F     # Default value
MD.FireQuench              F     # Default value
MD.InitialTemperature          0.000000000     K     # Default value
MD.TargetTemperature          0.000000000     K     # Default value
MD.TargetPressure          0.000000000     Ry/Bohr**3     # Default value
MD.NoseMass          100.0000000     Ry*fs**2     # Default value
MD.ParrinelloRahmanMass          100.0000000     Ry*fs**2     # Default value
MD.AnnealOption     TemperatureAndPressure     # Default value
MD.TauRelax          100.0000000     fs     # Default value
MD.BulkModulus         0.6797730000E-02 Ry/Bohr**3     # Default value
MD.FCDispl         0.4000000000E-01 Bohr     # Default value
MD.FCfirst              1     # Default value
MD.FClast             12     # Default value
UseSpatialDecomposition              F     # Default value
UseDomainDecomposition              F     # Default value
Harris_functional              F     # Default value
WriteKpoints              F     # Default value
WriteForces              F     # Default value
WriteDM              T     # Default value
WriteDM.NetCDF              T     # Default value
WriteDM.History.NetCDF              F     # Default value
WriteDMHS.NetCDF              T     # Default value
WriteDMHS.History.NetCDF              F     # Default value
SCF.Read.Charge.NetCDF              F     # Default value
SCF.Read.Deformation.Charge.NetCDF              F     # Default value
SaveInitialChargeDensity              F     # Default value
UseNewDiagk              F     # Default value
WriteBands              F     # Default value
WriteKbands              F     # Default value
WriteEigenvalues              F     # Default value
WriteCoorStep              F     # Default value
WriteMDhistory              F     # Default value
WriteMDXmol              F     # Default value
UseSaveData              F     # Default value
SaveHS              F     # Default value
FixAuxiliaryCell              F     # Default value
NaiveAuxiliaryCell              F     # Default value
ReInitialiseDM              T     # Default value
DM.AllowReuse              T     # Default value
DM.AllowExtrapolation              T     # Default value
MullikenInSCF              F     # Default value
WarningMinimumAtomicDistance          1.000000000     Bohr     # Default value
BornCharge              F     # Default value
ChangeKgridInMD              F     # Default value
Diag.ParallelOverK              F     # Default value
MD.RelaxCellOnly              F     # Default value
MD.RemoveIntraMolecularPressure              F     # Default value
COOP.Write              F     # Default value
SaveRho              F     # Default value
SaveDeltaRho              F     # Default value
SaveElectrostaticPotential              F     # Default value
SaveNeutralAtomPotential              F     # Default value
SaveTotalPotential              F     # Default value
SaveIonicCharge              F     # Default value
SaveBaderCharge              F     # Default value
SaveTotalCharge              F     # Default value
RcSpatial          0.000000000     Bohr     # Default value
ProcessorGridX              1     # Default value
ProcessorGridY              1     # Default value
ProcessorGridZ              1     # Default value
NumberOfEigenStates            108     # Default value
TimeReversalSymmetryForKpoints              T     # Default value
kgrid_cutoff          0.000000000     Bohr     # Default value
WFS.EnergyMin        -0.1797693135+309 Ry     # Default value
WFS.EnergyMax         0.1797693135+309 Ry     # Default value
LongOutput              F     # Default value
WriteWaveFunctions              F     # Default value
WriteWaveDebug              F     # Default value
ForceAuxCell              F     # Default value
AtomicCoordinatesFormat     NotScaledCartesianAng                                                                                                               
AtomCoorFormatOut     NotScaledCartesianAng      # Default value
LatticeConstant          0.000000000     Bohr     # Default value
Harris_functional              F     # Default value
MeshSubDivisions              2     # Default value
LatticeConstant          0.000000000     Bohr     # Default value
DirectPhi              F     # Default value
SimulateDoping              F     # Default value
SlabDipoleCorrection              F     # Default value
LatticeConstant          0.000000000     Bohr     # Default value
Diag.AllInOne              F     # Default value
Diag.DivideAndConquer              T     # Default value
Diag.NoExpert              F     # Default value
Diag.PreRotate              F     # Default value
Diag.Use2D              T     # Default value
SingleExcitation              F     # Default value
OccupationFunction     FD     # Default value
OccupationFunction     FD     # Default value
DM.FormattedFiles              F     # Default value
DM.FormattedInput              F     # Default value
DM.FormattedOutput              F     # Default value
DM.AllowExtrapolation              F     # Default value
DM.AllowExtrapolation              F     # Default value
DM.AllowExtrapolation              F     # Default value
DM.AllowExtrapolation              F     # Default value
DM.AllowExtrapolation              F     # Default value
DM.AllowExtrapolation              F     # Default value
DM.AllowExtrapolation              F     # Default value
DM.AllowExtrapolation              F     # Default value
DM.AllowExtrapolation              F     # Default value
DM.AllowExtrapolation              F     # Default value
DM.AllowExtrapolation              F     # Default value
DM.AllowExtrapolation              F     # Default value
DM.AllowExtrapolation              F     # Default value
DM.AllowExtrapolation              F     # Default value
DM.AllowExtrapolation              F     # Default value
DM.AllowExtrapolation              F     # Default value
DM.AllowExtrapolation              F     # Default value
DM.AllowExtrapolation              F     # Default value
DM.AllowExtrapolation              F     # Default value
DM.AllowExtrapolation              F     # Default value
WriteCoorXmol              F     # Default value
WriteCoorCerius              F     # Default value
BasisPressure         0.2000000000     GPa     # Default value
OpticalCalculation              F     # Default value
